2000
Lattice="42.300000000000004 0.0 0.0 0.0 42.300000000000004 0.0 0.0 0.0 42.300000000000004" Properties=species:S:1:pos:R:3 timestep=233000 pbc="T T T"
Na      29.06950000      37.81370000      16.39110000
Na       8.32670000       1.82235000       4.09780000
Na      17.03980000      26.42910000      25.43940000
Na      25.23030000      14.25600000      30.31320000
Na      13.37630000       7.73261000      33.38274000
Na      39.03220000      40.93890000       5.52166000
Na       7.48578000      11.84020000      21.00650000
Na      25.65130000      22.40200000      38.15740000
Na      15.32740000      39.62210000      40.62970000
Na      20.26210000      13.57580000       0.22367200
Na       4.91788000       0.92026200      25.72190000
Na      36.62760000      35.98880000      33.92920000
Na      42.28639690      22.07090000      10.59180000
Na      18.01630000      40.25278000      18.06700000
Na      32.16090000      40.69500000       0.36340000
Na      41.23460000      29.98170000      38.93090000
Na      13.90020000      27.19430000      40.43726000
Na      29.78230000      33.13098000       4.90170000
Na      13.55250000      34.12140000       5.83770000
Na      33.28940000      33.68255000      18.23500000
Na       9.66640000      15.49760000      25.69920000
Na      28.67510000      22.52470000      32.60721000
Na      24.63160000      25.50170000      31.05410000
Na      32.36130000      29.06270000       8.88300000
Na       8.95231000      37.93390000      15.27070000
Na      22.77810000      19.32030000       9.53098000
Na      32.02180000      34.15183000       6.63720000
Na      11.74980000       4.64062000      31.99030000
Na      11.36380000      39.74359000      16.66120000
Na       8.74640000      38.92801000      25.04220000
Na      39.68579000      20.62240000       1.67530000
Na      17.44890000       0.54530000      35.54214000
Na      12.91800000      42.01710000      29.22000000
Na      18.27620000      24.08040000      22.76530000
Na      41.21975000      29.47350000      21.19830000
Na      25.72590000      11.44680000      11.60700000
Na       5.93246000      26.84730000      11.23610000
Na      38.79058000      13.52010000       9.46965000
Na      25.84850000      34.90100000      41.98711800
Na      12.78700000      27.72440000      21.41220000
Na      10.59270000      24.46870000      26.21400000
Na       5.00053000      25.35930000      29.30820000
Na      19.96110000      27.08410000      13.40800000
Na       1.75240000      14.18830000      35.76196000
Na      15.06060000      10.73760000      36.77617000
Na      37.77080000      30.65790000      22.31750000
Na      10.72240000       2.61719000      10.08300000
Na      36.17200000      27.81700000      36.40594000
Na      34.21420000      17.89930000      29.46920000
Na      34.15293000       8.98536000       7.03460000
Na      38.33569000       8.50881000      12.43890000
Na      14.54130000      20.63590000      27.66510000
Na      27.09180000       6.94680000      25.96110000
Na      40.63752000      25.94920000      14.40830000
Na       2.31550000      16.93590000      38.36910000
Na       1.18410000      22.71900000      39.56480000
Na      13.87560000      30.53200000      18.87180000
Na       7.49936000      24.68060000      41.00600000
Na      10.00930000       1.57760000      40.22680000
Na      31.55390000      33.24982000      24.19040000
Na      21.60640000       3.96800000       1.86571000
Na      10.68800000      11.66490000       4.69606000
Na      16.01840000       2.71509000       5.64390000
Na      32.76669000      13.70610000      35.47013000
Na      27.53180000      30.11760000       0.23206400
Na      41.30538100      13.70570000      38.45090000
Na       3.95360000       0.29239800      22.18100000
Na       0.05330000      13.21070000       7.36904000
Na       1.00480000      28.72750000       4.73242000
Na      40.15001000      10.96410000      21.85040000
Na      12.53130000      11.87810000      11.07200000
Na       4.35290000      27.85670000      35.32350000
Na      16.19300000      29.96310000       6.23030000
Na       6.82040000      25.89040000      25.40920000
Na      14.78130000       0.77740000      23.89290000
Na      38.00555000      31.51750000       7.10847000
Na       9.72710000      40.78640000      19.51210000
Na      23.22640000      34.31240000      25.00090000
Na      11.16340000      39.51780000       6.53420000
Na      26.15240000      21.24100000       2.82620000
Na      26.72940000      10.66470000      40.92450000
Na      29.15330000      16.69690000      38.81220000
Na       0.56020000      14.84070000      14.05760000
Na       0.91718800      25.61650000      22.22230000
Na      21.73040000      16.19420000      11.58880000
Na       5.67390000      15.88850000      40.60520000
Na      38.24342000      20.42760000      12.23340000
Na       5.30130000      27.60480000      14.66160000
Na       3.50000000      21.56660000      29.49300000
Na      14.71440000       1.61800000      27.07990000
Na       1.52810000      36.49934000      33.43688000
Na      24.68500000      29.20660000      16.07090000
Na      17.78260000      31.41440000       9.38560000
Na      29.76780000      28.45200000      29.25010000
Na      30.19230000      34.42250000      16.85950000
Na       2.95906000       7.54530000      27.44090000
Na       9.89130000      12.15280000      38.96910000
Na      25.93010000      38.34199000       5.03499000
Na      19.42600000      29.49350000      17.10910000
Na      28.14360000       5.88770000       7.27410000
Na       6.84070000       3.91000000       9.94602000
Na      23.27360000      16.45890000      39.31050000
Na       2.36530000      12.19040000      32.67990000
Na       1.38700000      25.47700000       5.83549000
Na      35.96031000       8.91840000      33.64550000
Na       4.13347000      11.66370000      42.06612800
Na      38.47000000      38.17160000      15.24710000
Na      12.48920000      38.36040000      19.46700000
Na      40.21890000      19.96330000      40.52590000
Na      28.29470000       2.24078000      15.99280000
Na      38.02517000      12.42920000       3.44281000
Na      34.12650000      39.37890000      39.75270000
Na      19.79580000      41.89690900      15.52440000
Na      28.23800000      13.14210000      28.81220000
Na      10.71420000      20.05800000       8.99988000
Na      21.10980000      10.13480000      27.41380000
Na      28.16330000      14.23580000       4.77783000
Na       3.18131000      11.95980000      26.89710000
Na      28.81130000      40.02860000       6.82370000
Na      22.92390000      37.58510000       8.12424000
Na      11.12220000      18.51830000      28.71310000
Na      14.52560000      28.13570000       8.29309000
Na      34.49847000      13.88220000      30.81320000
Na      23.74030000      19.64970000      40.57783000
Na      24.02230000      25.22530000       7.59340000
Na      23.32420000      19.39330000      36.72990000
Na      14.40940000      32.06070000       8.52373000
Na      22.96350000       0.43150000       0.85167200
Na      16.84410000      33.78210000       2.57130000
Na      33.67969000       1.92970000      36.75247000
Na      37.17020000      41.48454600      37.82786000
Na      25.54820000      16.23160000      36.85699000
Na      12.75780000      32.86439000      24.69120000
Na       0.23754200      32.18230000      41.55954100
Na      34.97240000       4.36750000      27.14200000
Na      28.84860000      40.81670000      41.69606500
Na      13.91120000      20.74940000      19.86620000
Na      13.96280000      36.15250000      27.20590000
Na      22.68940000      36.89180000      33.13260000
Na      20.23520000      17.06100000      14.67140000
Na       8.07750000      26.55230000      17.29470000
Na      41.52322400       7.68739000      28.71670000
Na      25.72260000      28.69740000      34.24420000
Na      39.88590000       7.82160000      15.60840000
Na       1.98751000      34.75610000       9.06125000
Na      21.69560000      36.47096000       0.49604000
Na      25.97300000      31.69670000       9.32637000
Na      35.70800000      28.33610000      39.69068000
Na      29.79700000      41.38264400      27.76400000
Na       0.37010000      20.65660000      34.75726000
Na      40.19960000      27.27180000      24.09830000
Na      17.72190000       0.15056100       3.68980000
Na      18.29830000      15.51680000       6.34177000
Na      28.93900000      21.44260000      21.65530000
Na      23.10900000       1.32399000       6.53277000
Na      20.86820000      19.20740000       5.93270000
Na      33.15960000      21.06980000       5.62630000
Na       2.48520000      32.34450000      30.23620000
Na       6.89400000      36.44020000      13.39610000
Na      30.81250000      32.70360000      34.07150000
Na      25.65470000      20.97900000      23.49730000
Na      31.25590000      30.53590000      23.24430000
Na      23.40690000       7.21570000       2.62568000
Na      35.75660000      40.80640000      20.65420000
Na      10.69090000      31.32820000      20.37650000
Na      10.29440000       7.73900000      33.01270000
Na      19.21240000       3.39990000      14.58520000
Na      40.45420000      21.03560000      17.47570000
Na      15.01480000       8.26356000      30.17650000
Na      10.06760000       8.60150000      20.24290000
Na       8.29740000       9.26674000       2.45440000
Na      13.07120000      20.39020000      31.60430000
Na      37.69540000      31.43330000      10.47030000
Na       8.46510000       2.80594000      18.36390000
Na      13.90490000      11.76590000      33.77490000
Na      30.37130000      23.61310000      25.09100000
Na       3.07450000      30.08740000      32.69333000
Na      31.17160000      12.49600000       3.59940000
Na      20.22800000      14.46240000      38.54180000
Na      12.87130000      33.69000000      12.04620000
Na       8.16190000      11.12300000      41.66460000
Na      16.63810000      33.01930000      26.87470000
Na      40.91270000      36.17070000      14.87470000
Na      27.04420000      24.39010000      23.37060000
Na      22.55930000      41.52870000      31.30500000
Na      41.57373400      26.20180000      18.81670000
Na      18.19630000      29.91940000      14.25600000
Na      19.95510000      21.95080000      19.50400000
Na      24.38130000      39.97040000      24.75530000
Na       4.41869000      13.12440000      29.68340000
Na      35.17570000      34.42280000      36.77280000
Na       0.31450000       2.32840000      37.22426000
Na       2.09590000      37.37543000       6.73760000
Na      41.10020000      11.65350000      14.25300000
Na      17.62960000      14.81860000      13.87430000
Na      21.97000000      34.75640000      12.97580000
Na      35.42250000       7.18190000      10.19910000
Na      19.80250000      15.48500000      29.58120000
Na      22.72710000       5.63890000      31.91790000
Na      28.62670000      25.99700000      26.78640000
Na      26.41740000      24.52000000      14.01220000
Na      23.21440000       5.13780000       5.13811000
Na      13.01260000       7.10877000      40.63590000
Na      28.39650000      23.11500000      36.16097000
Na       0.64860000      38.09640000      20.91300000
Na      24.09820000       2.41225000      36.61060000
Na      30.16620000       2.28370000       6.29570000
Na      25.31260000       1.16534000      29.25170000
Na      26.62350000      18.86450000      10.73130000
Na       0.52410000      35.11980000      17.76760000
Na      35.05696000      23.99660000      28.23510000
Na      32.81970000       9.19135000       3.71780000
Na      28.61860000      25.79550000      16.58660000
Na      41.76197800      23.21130000      36.59940000
Na      28.16990000      15.98760000      31.24370000
Na      32.10390000      32.11800000      11.23900000
Na       2.51830000      10.02390000      29.68730000
Na      15.21160000      20.68370000       3.98960000
Na      30.58400000       7.90653000       1.47750000
Na       0.75014700      40.04100000      33.22850000
Na      16.04670000      32.31773000      13.17200000
Na       2.62700000      25.33910000       9.78860000
Na      27.90620000      40.27496000      22.94800000
Na      38.83160000      17.97810000      18.41040000
Na       5.77358000       6.89061000      17.46680000
Na       4.77781000      40.95695000      32.98063000
Na      22.61010000      21.71890000       0.83500000
Na      36.60060000       2.00140000       6.68698000
Na      41.37110000      37.75581000       4.85490000
Na      13.43770000      20.67970000       0.74774600
Na      34.17650000      39.12251000      10.32680000
Na      13.95590000       5.87473000      23.14290000
Na      41.51770000      26.39740000      11.09990000
Na       1.81430000       5.45093000       1.11440000
Na       2.62800000       7.34320000       7.37280000
Na      35.26901000       0.85013200      10.34040000
Na      12.98540000      10.67310000      39.33500000
Na      31.50480000      35.74307000      31.05170000
Na      26.14780000      35.17310000      32.82930000
Na      21.95960000      21.90690000      11.41680000
Na      24.10790000      17.48150000      13.38890000
Na       8.67173000      30.34610000       1.27170000
Na      10.38130000      27.14380000       0.08762900
Na       7.38480000       8.52770000      11.59590000
Na      29.94410000      34.09750000       1.57650000
Na       5.86010000       0.04630000       5.87339000
Na       0.20124900      18.01470000      27.41800000
Na      33.08000000       3.11290000       8.16224000
Na      18.79010000      10.58880000      14.10250000
Na      38.01646000       1.66880000      41.41396600
Na      28.07100000      24.91270000       3.83624000
Na      15.92480000      32.62323000      17.40700000
Na       9.63060000      41.15848000      33.84050000
Na       4.73150000      18.22640000       8.70710000
Na      27.28420000      35.52980000      20.22970000
Na      37.71171000      13.03880000      39.98260000
Na      16.37470000      29.50680000      27.36230000
Na      30.11720000       1.27842000      41.31090000
Na      29.52200000      12.99300000      41.10648000
Na      11.39450000      40.84873000      24.37050000
Na      23.83340000      37.22160000      27.02060000
Na      31.68430000       7.01762000      17.66290000
Na       4.68490000      36.57900000      10.57500000
Na       3.52385000       3.94649000      15.52910000
Na      40.86057000       0.17520000      39.06920000
Na      12.94180000      35.28470000       2.63542000
Na       6.75578000      21.63090000       0.15460000
Na      22.76000000      32.23370000       9.75700000
Na      34.71320000      37.05490000       4.29640000
Na      38.04333000      26.44300000       9.57051000
Na      33.77729000      10.38840000      17.15490000
Na      37.90670000       2.57440000      27.86530000
Na      33.34842000      36.17860000      24.43790000
Na      29.45420000      27.86690000       7.22144000
Na      40.73450000       4.28447000      27.19540000
Na      24.80490000      31.89090000      31.34650000
Na      19.64540000      34.62580000      25.25780000
Na      11.58280000      14.06010000      32.93810000
Na       3.36490000      21.52780000      33.21340000
Na      34.94340000       6.35350000      31.13200000
Na       0.81550000      33.24310000      32.87220000
Na      33.30260000      32.97519000      30.31040000
Na      34.72666000      17.24570000       1.73120000
Na      13.87900000      36.30170000      36.39840000
Na      14.51630000      33.19240000       0.11090000
Na      39.58960000      14.09310000       0.54721200
Na      15.08190000      10.77080000       8.63330000
Na      15.33740000      27.26440000      19.08750000
Na      23.92380000      29.58670000      22.12490000
Na      25.71370000      37.94210000      22.23780000
Na      38.02570000      17.99490000      22.80890000
Na       8.39360000      41.90010000      37.91750000
Na       8.00850000      18.61710000      40.64556000
Na      13.26120000      27.00130000       1.66012000
Na      40.41731000      38.50060000      18.07400000
Na       8.42290000      33.24040000      18.33480000
Na      23.41390000      11.98130000      16.93470000
Na      19.23920000      34.37478000      38.43279000
Na      31.11360000       1.69347000      31.67690000
Na      38.51200000      16.47520000       2.95200000
Na      11.70210000      30.13980000      10.09970000
Na       1.14250000      31.43920000      11.11010000
Na      35.48954000      35.72310000      30.22120000
Na       1.85190000      24.40080000       0.36880000
Na      20.10520000      24.09570000      40.80015000
Na       3.09100000       2.69220000       5.42312000
Na       8.83690000      13.07660000      18.02600000
Na      32.34710000      14.13290000       0.47894200
Na       8.02900000      29.82800000      18.33680000
Na      19.71930000      15.34530000      18.98830000
Na       4.24366000       8.17910000      24.38980000
Na       1.06870000      23.26730000       3.26427000
Na      22.25370000      34.22613000      40.41913000
Na      20.88000000      16.83450000      41.87980000
Na      34.23283000      26.12420000      10.90540000
Na      15.55130000      14.83920000      38.16571000
Na      19.95000000       2.87490000      41.08810000
Na      33.45500000      36.76030000      16.95490000
Na      16.91160000      34.28952000      35.84285000
Na      19.46150000      32.41153000      12.16370000
Na      39.99980000       7.76460000      19.21800000
Na      10.72050000      13.61110000      14.60300000
Na       7.05980000      12.93350000      26.93860000
Na      19.60730000       5.06420000      11.65760000
Na       1.92590000      17.14130000      10.29010000
Na      38.53218000      16.01020000      39.44660000
Na      34.26750000       7.85280000      19.65290000
Na       2.93455000      15.37280000      27.10520000
Na      35.21810000      15.22950000      37.47450000
Na      35.63090000      19.74290000       9.06750000
Na      16.47420000      13.63850000      34.48610000
Na      12.72170000      15.86850000      23.15680000
Na      26.52260000      23.26110000      26.77870000
Na      37.33420000      28.58040000       7.28337000
Na       2.99670000      29.71250000       0.97644700
Na       5.26253000      17.39700000      21.61610000
Na      41.64679900      12.37360000       4.03757000
Na      24.77880000      37.71690000      11.59570000
Na       4.18460000       0.08560000      36.79100000
Na      13.05100000      22.01460000      10.64430000
Na       2.93019000       4.40911000       8.89512000
Na      21.75020000      16.34150000       4.61058000
Na      26.56240000      13.96810000      25.75660000
Na      30.76720000      36.24851000      19.53840000
Na       9.83836000      25.15940000      38.46660000
Na      41.46188900      13.40780000      11.17810000
Na      34.70840000      31.28150000       0.57314600
Na      21.12400000       3.31690000      33.94463000
Na      11.74480000      36.97420000      42.12880000
Na      13.83770000      26.48560000      32.50100000
Na      35.04990000      25.44310000       0.53720000
Na      42.20320000       2.78150000      40.81693000
Na       7.42490000       2.25486000      13.07920000
Na       0.59751600       1.76210000      16.71170000
Na      35.59050000      14.48250000      11.40940000
Na       0.04200000      29.12600000      13.46350000
Na      17.49970000      35.86590000       7.32190000
Na       9.74210000      35.93060000      12.05670000
Na      17.84880000      25.97920000       0.23850900
Na      32.02840000       0.03690890      10.13990000
Na      34.54050000       3.92510000      33.68030000
Na      16.55660000       2.33500000      12.69190000
Na      33.50177000      18.05000000       6.33819000
Na      15.42860000      22.05290000      37.46860000
Na      17.44830000      22.10080000       1.20236000
Na       9.75093000      24.27270000      19.56520000
Na      28.87390000      21.95820000      13.14670000
Na      39.31264000      14.63710000      20.00800000
Na      28.62900000      13.61330000      12.93400000
Na      38.69472000      27.69470000      38.72597000
Na      21.63140000       6.00699000      14.48380000
Na       9.30110000       5.05060000      12.17740000
Na       4.05423000      21.90240000       8.65203000
Na      31.55140000      27.95350000      26.31680000
Na       5.62980000       5.71080000      13.38510000
Na      12.95690000       0.36430000      15.13170000
Na       3.13840000      21.78690000      36.88940000
Na       2.98250000      26.66900000       2.54562000
Na      39.66526000      17.61500000      25.74720000
Na      41.04120000      33.64068000      10.24450000
Na      36.84964000      24.48870000      25.55080000
Na      18.72280000      22.10290000      38.43774000
Na       3.50120000      21.07180000       1.85560000
Na      25.34380000       6.98860000      37.46450000
Na      31.66200000       0.45460000      15.59450000
Na      32.96030000      34.26240000      14.31570000
Na      11.76370000      41.90870000      36.88730000
Na       5.80380000       4.19160000       6.32631000
Na      28.83710000      11.51500000      22.01710000
Na      21.79980000      35.11750000      17.22150000
Na       9.25900000      11.29370000      33.13880000
Na      17.65410000       3.43180000       2.14660000
Na      37.62905000      10.48080000      15.45950000
Na      22.90290000      31.44100000      27.42340000
Na       4.61390000      11.00790000       3.27600000
Na      39.73970000      39.30190000      26.30960000
Na      21.85160000       8.61400000      31.69310000
Na      32.53150000       2.91780000      24.56470000
Na      18.76670000      33.38130000      15.55980000
Na      18.80000000       0.36720000      32.55810000
Na      11.30960000       2.43185000      27.50350000
Na      31.64760000      34.56790000      37.17810000
Na      20.05180000      28.91290000      36.72430000
Na       8.45210000      17.03180000      12.62230000
Na      20.16910000       3.71541000      26.60650000
Na       7.12450000       0.17297700      10.53050000
Na      16.60780000       7.51713000       1.66080000
Na       7.35577000      13.59060000      11.21800000
Na      17.08500000       9.62851000      26.98410000
Na       9.26933000      38.18405000      37.64710000
Na      37.73660000      38.22726000      31.14260000
Na      35.88420000       3.68710000       0.86550000
Na      30.51620000      38.42720000      39.99810000
Na       6.11620000      19.91890000      11.09010000
Na      30.22390000      18.80970000      16.35660000
Na       8.19310000       7.24970000      14.90940000
Na      40.75574000      14.19290000      34.00240000
Na       6.72405000      39.94311000      35.75410000
Na       4.82070000       4.92300000      40.97665000
Na      30.40370000      32.79240000      20.66510000
Na      35.70014000      30.41400000      30.48750000
Na       7.74950000      11.39950000      14.10060000
Na      41.42875300      33.03384000      28.19390000
Na      24.42500000       7.54530000      41.10360000
Na      19.13280000       5.61089000      37.95110000
Na      37.59540000      31.06380000      37.28511000
Na      18.33300000       5.29740000      17.48220000
Na      13.65520000       8.85096000      20.11580000
Na      18.40530000      24.03410000       8.36100000
Na       4.95180000       3.79050000      27.86020000
Na      32.21670000      10.00730000       9.67868000
Na      30.76480000      30.84320000      40.69696000
Na       9.49944000      18.32740000       5.41750000
Na      34.01420000      28.27280000       2.70361000
Na      16.76040000       0.48460000      15.19420000
Na      18.26470000      30.71100000       3.22300000
Na      38.60000000      30.27670000      28.77600000
Na      34.08770000       0.69320000      33.13200000
Na       7.05680000      33.22290000      41.65830000
Na      16.18100000      11.63650000      11.39350000
Na      28.44250000      42.01600000      31.66140000
Na      11.63570000      30.65040000       6.50680000
Na       6.99224000      40.50762000      22.38090000
Na      22.97210000      28.40360000       6.41414000
Na      37.21690000      16.45100000      28.02540000
Na      36.75522000      41.75400000      26.49700000
Na      28.25040000      17.05300000      34.90451000
Na      28.52920000      28.46320000      39.39920000
Na      22.84670000      28.02860000      19.09270000
Na      32.01410000      18.51710000      25.95040000
Na      28.72580000      23.44590000       0.45266400
Na      33.97757000      40.62200000       3.48079000
Na      29.22930000       2.41300000      25.15010000
Na      20.33130000      23.24560000      35.41202000
Na       3.98596000      40.95749000      12.15280000
Na      30.24250000       6.15320000      25.30400000
Na      41.63025500      19.48900000      23.92270000
Na       8.97090000      13.91730000       8.07830000
Na      14.23480000       3.79718000      29.67700000
Na       7.53900000       9.98470000      17.67510000
Na      15.92790000      13.64530000      25.34780000
Na      35.59130000      15.39910000       4.59738000
Na      39.19590000      28.14170000      32.02270000
Na      18.37780000       1.87530000      17.80060000
Na      11.89120000       2.59250000      24.51350000
Na      19.23160000      35.87334000      32.11160000
Na      38.58954000      23.59440000      18.66420000
Na       6.87470000      37.63950000      20.73440000
Na      11.40680000      29.86070000      23.28780000
Na      10.50620000      32.88090000       3.87860000
Na      12.97580000      11.70000000      17.58970000
Na       5.13520000      19.20440000      31.84850000
Na      22.79040000       9.99881000      42.04775200
Na      20.56400000      20.94000000      26.21460000
Na      38.87560000      26.74610000      27.21490000
Na       3.70774000      37.59177000      27.45410000
Na      39.66460000       2.25397000       4.53986000
Na       2.88210000      25.56730000      37.90653000
Na       9.49730000      27.20950000      28.34540000
Na      34.93780000       1.98640000      39.98004000
Na      12.48760000      34.51840000      39.52760000
Na      18.60220000      12.95320000      21.97170000
Na      14.52630000      17.67210000      29.77010000
Na      12.10560000      11.04620000      30.63330000
Na      26.94570000      41.95403700      26.40560000
Na       2.20918000       1.20410000      27.94480000
Na      10.09180000      34.98019000      36.90100000
Na       6.44540000      23.11700000      31.79390000
Na      27.17550000      28.48770000      31.01910000
Na      28.54880000      35.08650000       9.74821000
Na       8.93709000      24.03060000       7.08391000
Na      21.51500000       3.42064000       9.32400000
Na      40.84670000      16.41650000       8.41390000
Na      34.48558000      28.69110000      14.29920000
Na      15.73900000      16.07930000       3.51040000
Na      40.58200000      10.08990000      10.43180000
Na      36.87830000      26.71630000      23.08220000
Na      15.22430000       5.62010000      32.08050000
Na      38.57270000      27.18360000      20.24810000
Na      17.15730000      18.30560000       8.21884000
Na      27.74850000      16.60200000       7.21703000
Na      19.41360000      31.87200000      27.08060000
Na      22.84040000      36.99174000       3.96868000
Na      36.67320000      34.52520000      23.13470000
Na      22.31260000      24.58910000      20.04970000
Na      31.05780000      24.09330000      34.42390000
Na       6.58169000      41.58730000      13.77550000
Na      16.75260000      23.79250000      18.83640000
Na      36.60440000      21.32720000       6.00280000
Na      29.43540000      34.52610000      13.24510000
Na      42.24499360       0.39992800      22.41930000
Na      22.58860000      11.71070000      24.12440000
Na      25.39970000      40.38380000      37.21830000
Na      15.68500000      25.07440000      35.46540000
Na      27.57240000      16.73860000      17.74420000
Na       1.68221000      18.06770000      14.12140000
Na      26.64580000       9.72290000       8.64480000
Na      23.36640000       1.52660000      26.48710000
Na      18.71760000      32.30020000      33.50780000
Na       4.67600000       9.72220000      14.73150000
Na       9.41476000       6.75153000      17.62540000
Na      34.80527000      23.50130000      35.21028000
Na      17.31020000      18.92760000       4.74551000
Na      39.10310000       5.33530000       6.48278000
Na      10.84300000      39.63520000      31.26030000
Na      14.53270000      12.42390000       3.09974000
Na      22.08550000      13.08540000       3.21500000
Na       0.86020000       5.87770000      39.92290000
Na       8.64080000      14.80250000      41.65601500
Na      35.57854000      32.08150000      13.78600000
Na      37.59074000      40.95330000      23.54240000
Na       2.79017000      21.40970000      15.63750000
Na      30.77970000      12.76860000      25.46530000
Na      36.42240000      24.91650000      39.95319000
Na      17.36630000      40.95640000      11.62250000
Na       1.36028000      28.06780000      25.46470000
Na      11.59070000      26.59340000      14.38350000
Na      30.34730000      31.20820000      37.04750000
Na       8.81593000       1.33180000       7.51890000
Na      38.01600000      37.31490000       5.84710000
Na      40.49880000      18.54530000      33.12130000
Na       9.26890000      32.12400000      24.91330000
Na      13.32970000       3.60840000      12.97020000
Na      11.35390000       8.24198000       4.30897000
Na      37.45887000      38.01710000      39.54442000
Na       4.02020000      22.71440000      22.73930000
Na      19.46630000      39.39260000       8.56817000
Na       1.61890000      10.82010000      12.68600000
Na      31.94970000      11.98030000      13.16600000
Na       4.96021000      37.54665000      32.80560000
Na      30.75550000       8.53800000      31.13920000
Na      25.49060000      21.38750000      12.74170000